{
  "topics": {
    "Periodic Trends and Atomic Properties": 1,
    "Coordination Compounds": 16,
    "Inorganic Chemistry": 3,
    "Solid State Chemistry": 2,
    "Electrochemical Reactions": 1,
    "Redox Reactions and Electrochemistry": 1,
    "Molecular Orbital Theory": 1,
    "Solid-State Chemistry": 2,
    "Main Group Chemistry": 27,
    "Oxidation-Reduction Chemistry": 1,
    "Crystal Field Theory": 2,
    "History of Inorganic Chemistry": 1,
    "Molecular Structure and Bonding": 2,
    "Metallic Bonding": 1,
    "Biological Inorganic Chemistry": 1,
    "Coordination Chemistry": 7,
    "Periodic Table and Elemental Properties": 2,
    "Electrochemistry": 2,
    "Periodic Trends": 2,
    "Quantum Mechanics in Chemistry": 1,
    "Crystal Structures and Lattices": 1,
    "Symmetry and Molecular Structure": 1,
    "Chemical Bonding": 2,
    "Spectroscopy": 1,
    "Crystal Structures and Packing": 1,
    "Inorganic Chemistry Fundamentals": 1,
    "Inorganic Solid State Chemistry": 2,
    "Oxides and Their Chemical Behavior": 1,
    "Applications in Everyday Life": 1,
    "Inorganic Chemistry of Transition Metals": 1,
    "Electrochemical Processes": 1,
    "Acids and Bases": 1,
    "Ionic Bonding and Lattice Energy": 1,
    "Electronic Structure and Periodicity": 1,
    "Group Theory and Molecular Symmetry": 1,
    "Acid-Base Chemistry": 1,
    "Inorganic Pigments and Color Chemistry": 1,
    "Radioactivity and Nuclear Chemistry": 1,
    "Cluster Chemistry": 1,
    "Environmental Chemistry": 1,
    "Catalysis with Organometallics": 1,
    "Catalytic Chemistry": 1,
    "Quantum Mechanics": 1,
    "Bioinorganic Chemistry and Applications": 1
  },
  "subtopics": {
    "Electron Affinity and Ionization Energy Trends": 1,
    "Colligative Properties and Structure Determination": 1,
    "Textbook Introduction and Publication Information": 1,
    "Defects in Solids and Electrical Conduction": 1,
    "Molecular Orbital Theory and Ligand Orbitals": 1,
    "Complex Ion Formation and Structure": 1,
    "Electron Transfer and Thermodynamics": 1,
    "Oxidation-Reduction Mechanisms": 1,
    "Molecular Orbital Diagrams and Bonding in Diatomic Molecules": 1,
    "Mesostructured Materials and MCM-41": 1,
    "Applications of Coordination Compounds": 1,
    "Stereochemistry and Isomerism": 1,
    "Hydrolysis and Covalent Nature of Halides": 1,
    "Frost Diagrams and Redox Reactions": 1,
    "Ligand Field Stabilization Energy (LFSE)": 1,
    "Hydrides and Their Properties": 1,
    "Discovery of Noble Gases": 1,
    "Molecular Orbital Theory": 1,
    "Polydentate Ligands": 1,
    "Stereochemistry and Molecular Dynamics": 1,
    "Group 13 Elements and Their Properties": 1,
    "Ligand Field Theory": 1,
    "Properties and Behavior of Metallic Bonds": 1,
    "Preparation and Properties of Elements and Compounds": 1,
    "Acid-Base Catalysis": 1,
    "Crystal Field Theory": 1,
    "Catalytic Mechanisms": 1,
    "Element Classification and Properties": 1,
    "Group 4A Elements and Their Oxides": 1,
    "Frost Diagrams and Gibbs Energy": 1,
    "Periodic Law and Trends": 1,
    "Stereochemistry of Covalent Molecules": 1,
    "Ionic Crystal Structures": 1,
    "Term Symbols and Electron Configuration": 1,
    "Crystal Systems and Bravais Lattices": 1,
    "Halides of Transition Metals and Post-Transition Metals": 1,
    "Lewis Acids and Bases in Coordination Chemistry": 1,
    "Point Groups and Symmetry Elements": 1,
    "Lewis Structures and Electron Distribution": 1,
    "UV-Visible Spectroscopy": 1,
    "Close-Packed Structures in Metals": 1,
    "Reactions and Synthesis of Alkali Metal Compounds": 1,
    "Charge-Transfer Transitions": 1,
    "Alkaline Earth Elements and Their Compounds": 1,
    "Kinetics of Coordination Compounds": 1,
    "Nitrogen and Its Compounds": 1,
    "Textbook Introduction and Publisher Information": 1,
    "Perovskite Structures and Properties": 1,
    "Acid-Base Character of Metal and Non-Metal Oxides": 1,
    "Molecular Orbital Theory in Metal Carbonyls": 1,
    "Advanced Inorganic Chemistry Applications": 1,
    "Reactions and Oxidation States of Group 14 Elements": 1,
    "Reactivity of Coinage Metals with Acids and Complexing Agents": 1,
    "Group 5A: The Pnicogens": 1,
    "Coordination Chemistry and Reaction Mechanisms": 1,
    "Electron Transfer Mechanisms": 1,
    "Coordination Compounds and Ligands": 1,
    "Electronic Structure of Metal Complexes": 1,
    "Electrolysis and Redox Reactions": 1,
    "Electrolysis and Metal Refining": 1,
    "Oxidation States and Redox Behavior of Group 15 Elements": 1,
    "Electronic Spectra and Transitions": 1,
    "Solvent System Definition of Acids and Bases": 1,
    "Hydration and Crystal Field Theory": 1,
    "Elemental Data and Classification": 1,
    "Lanthanide Complexes and Ligand Behavior": 1,
    "Lattice Enthalpy and Solubility of Salts": 1,
    "Radius Ratio and Crystal Structure Prediction": 1,
    "Electron Configuration Patterns": 1,
    "Heteroboranes and Metallacarboranes": 1,
    "Inert-Pair Effect": 1,
    "Character Tables and Point Groups": 1,
    "VSEPR Theory and Molecular Geometry": 1,
    "Electronegativity and Periodic Trends": 1,
    "Born-Haber Cycles and Lattice Energy Calculations": 1,
    "Acid-Base Equilibria and Thermodynamics": 1,
    "Electronic Transitions and Color Formation": 1,
    "Alkali Metals and Ionic Bonding": 1,
    "Coordination Number and Reaction Mechanism": 1,
    "Electronegativity and Chemical Bonding": 1,
    "Radioactive Decay and Half-Life": 1,
    "Discovery and Properties of Iodine": 1,
    "Oxidation States and Oxides of Alkali Metals": 1,
    "Nitrogen Compounds and Bonding": 1,
    "Group 1 Elements and Their Properties": 1,
    "Electronic Structure and Color of Transition Metal Complexes": 1,
    "Isolobal Fragments and Their Relationships": 1,
    "Greenhouse Gases and Atmospheric Chemistry": 1,
    "Crystal Field Theory and Electronic Transitions": 1,
    "Bond Order and Molecular Structure": 1,
    "Metal-Ligand Bonding and Electronic Structure": 1,
    "Mechanisms of Catalytic Reactions": 1,
    "Oxides and Oxyacids of the Nitrogen Family": 1,
    "Zintl Phases and Organometallic Compounds": 1,
    "Hydrogen Compounds and Their Reactions": 1,
    "Extended Silicon-Oxygen Compounds": 1,
    "Mechanisms of Oxidation Reactions": 1,
    "Ionic Bonding and Electron Transfer": 1,
    "Oxy-acid Salts and Hydrolysis": 1,
    "Schrodinger Equation": 1,
    "MRI Contrast Agents": 1,
    "Periodic Trends and Atomic Properties": 1
  },
  "concepts": {
    "Electron Affinity": 3,
    "Ionization Energy": 2,
    "Atomic Radius": 1,
    "Cryoscopic measurements": 1,
    "Freezing point depression": 1,
    "Electrolytic dissociation": 1,
    "Pergamon Press": 1,
    "Copyright": 1,
    "Library of Congress Catalog Card": 1,
    "Point defects": 1,
    "Electrical conduction mechanisms": 1,
    "Stoichiometric defects": 1,
    "Non-stoichiometric defects": 1,
    "Schottky defects": 1,
    "SALC orbitals": 1,
    "Molecular orbitals": 1,
    "Ligand orbitals": 1,
    "Coordination number": 4,
    "Ligands": 2,
    "Complex cations": 1,
    "Crystal field theory": 1,
    "Octahedral geometry": 2,
    "Electron transfer": 2,
    "Gibbs free energy": 1,
    "Activation energy": 1,
    "Rate equations": 1,
    "Redox reactions": 1,
    "Oxidation states": 4,
    "Hydrogen peroxide decomposition": 1,
    "Sulfur compounds": 1,
    "Acid-base equilibria": 1,
    "Molecular Orbital Theory": 2,
    "Bond Order": 1,
    "Antibonding Orbitals": 1,
    "Electron Configuration": 1,
    "Homonuclear Diatomic Molecules": 1,
    "Mesostructured channels": 1,
    "MCM-41": 1,
    "Sol\u2013gel process": 1,
    "Structural inorganic chemistry": 1,
    "Solid-state applications": 1,
    "Coordination compounds in photography": 1,
    "Iron(III) hexacyanoferrate(II) (Turnbull's blue)": 1,
    "Cyanide ligands": 1,
    "Photographic sensitization": 1,
    "Hydrogen cyanide gas": 1,
    "Coordination isomerism": 1,
    "Chirality in coordination complexes": 1,
    "Ligand chirality": 1,
    "Fac and mer isomers": 1,
    "Enantiomers": 1,
    "Hydrolysis of covalent halides": 1,
    "Octet expansion limitations": 1,
    "Covalent vs. ionic character of metal halides": 1,
    "Stabilization of high oxidation states by fluorine": 1,
    "Formation of high oxidation state fluorides": 1,
    "Frost diagrams": 1,
    "oxidizing agents": 1,
    "disproportionation": 1,
    "acidic vs. basic solutions": 1,
    "redox reactions": 1,
    "LFSE": 1,
    "high-spin": 1,
    "low-spin": 1,
    "d-orbital splitting": 6,
    "magnetic moment": 1,
    "Hydrides": 2,
    "Boiling Points": 1,
    "Melting Points": 1,
    "Enthalpies of Vaporization": 1,
    "Noble gases": 1,
    "Isolation techniques": 1,
    "Historical discoveries": 1,
    "Molecular orbital energy-level diagram": 1,
    "Bonding and antibonding orbitals": 1,
    "Valence electrons distribution": 1,
    "polydentate ligands": 1,
    "bidentate ligands": 1,
    "tridentate ligands": 1,
    "tetradentate ligands": 1,
    "coordination complexes": 1,
    "stereochemically nonrigid molecules": 1,
    "fluxional isomerism": 1,
    "inert pair effect": 1,
    "tautomerism": 1,
    "NMR spectroscopy": 1,
    "electron density": 1,
    "oxidation states": 2,
    "metallic character": 1,
    "Z-effective": 1,
    "Crystal Field Theory": 2,
    "High-spin complex": 1,
    "Low-spin complex": 1,
    "Asymmetrical electronic arrangements": 1,
    "Metallic bond": 1,
    "Enthalpy of sublimation": 1,
    "Enthalpy of dissociation": 1,
    "Electron mobility": 1,
    "Fractional distillation of liquid air": 1,
    "Thermal decomposition": 1,
    "Azides": 1,
    "Nickel carbonyl": 1,
    "Zn": 1,
    "Fe(II)": 1,
    "Fe(III)": 1,
    "Mg(II)": 1,
    "Mn": 1,
    "Ni(II)": 1,
    "paramagnetism": 1,
    "ligands": 1,
    "octahedral complexes": 1,
    "Wilkinson\u2019s catalyst": 1,
    "Hydrogenation reaction": 1,
    "Catalytic cycle": 1,
    "Element names": 1,
    "Element symbols": 1,
    "Atomic number": 2,
    "Molar mass": 2,
    "Inert-pair effect": 3,
    "Amphoteric compounds": 1,
    "Anhydrides": 1,
    "Silica and Silicates": 1,
    "Frost diagram": 1,
    "standard reaction Gibbs energy": 1,
    "oxidation number": 1,
    "Effective Nuclear Charge (Za)": 1,
    "Atomic Radii": 1,
    "Ionization Energy (IE)": 1,
    "Electron Affinity (EA)": 1,
    "Electronegativity (EN)": 1,
    "Valence bond theory": 1,
    "Electron pair repulsion": 1,
    "Hybrid orbitals": 1,
    "Linear molecular geometry": 1,
    "Triangular planar geometry": 1,
    "Close-packed structures": 2,
    "Hole-filling in ionic lattices": 1,
    "Rock-salt structure": 1,
    "ccp (cubic close-packed) arrangement": 1,
    "hcp (hexagonal close-packed) arrangement": 1,
    "Term symbols": 1,
    "Orbital angular momentum": 1,
    "Spin angular momentum": 1,
    "Hund's rule": 1,
    "Vector model": 1,
    "Body-centered cubic": 1,
    "Face-centered cubic": 1,
    "Base-centered orthorhombic": 1,
    "Face-centered orthorhombic": 1,
    "Hexagonal close packing": 1,
    "Halide compounds": 1,
    "Periodic trends in halide formation": 1,
    "Lewis acid": 1,
    "Lewis base": 1,
    "coordinate-covalent bond": 1,
    "adduct": 1,
    "gas-phase reaction": 1,
    "mirror plane of symmetry": 1,
    "\u03c3v": 1,
    "\u03c3v'": 1,
    "Lewis structures": 1,
    "octet rule": 1,
    "resonance": 1,
    "UV-Visible spectroscopy": 1,
    "Absorbance": 1,
    "Cuvette": 1,
    "Optically transparent materials": 1,
    "Wavelength measurement": 1,
    "Octahedral holes": 1,
    "Tetrahedral holes": 1,
    "Cubic close-packed (ccp)": 1,
    "Hexagonal close-packed (hcp)": 1,
    "alkali metal compounds": 1,
    "synthesis of metal iodides": 1,
    "reaction with water": 1,
    "standard reduction potentials": 1,
    "hygroscopicity": 1,
    "LMCT transitions": 1,
    "ligand-to-metal charge-transfer": 1,
    "optical electronegativities": 1,
    "Acetylide anions": 1,
    "Calcium carbide": 1,
    "Beryllium carbide": 1,
    "Hydrides of alkaline earth metals": 1,
    "Calcium cyanamide": 1,
    "labile": 1,
    "inert": 1,
    "energy of activation": 1,
    "free energy": 1,
    "equilibrium constant": 1,
    "Nitrogen molecule (N2)": 1,
    "Dissociation energy": 1,
    "Isomerism": 1,
    "Endothermic reactions": 1,
    "Triple bond": 1,
    "Inorganic Chemistry": 1,
    "Textbook": 1,
    "Publisher Information": 1,
    "Perovskite structure (ABX3)": 1,
    "Ferroelectric properties": 1,
    "Piezoelectric properties": 1,
    "Anti-perovskites (XX\u2032A3)": 1,
    "Solid solutions in perovskites": 1,
    "Metal oxides": 1,
    "Basic character": 1,
    "Oxidation state": 1,
    "Acidic oxides": 1,
    "Salt formation": 1,
    "Metal-Carbonyl Bonding": 1,
    "Electron Count": 1,
    "Backbonding": 1,
    "Ligand-Centered Orbitals": 1,
    "Inorganic chemistry applications": 1,
    "Everyday life relevance": 1,
    "Silicon's reaction with alkali metal hydroxide": 1,
    "Oxidation states of tin and lead": 1,
    "Formation of SiF6^2- ion": 1,
    "Carbides as binary compounds of carbon": 1,
    "Oxidizing acids": 1,
    "Complexing agents": 2,
    "Aqua regia": 1,
    "Cyanide leaching": 1,
    "Tetrachloroaurate(III) ion": 1,
    "Pnicogens": 1,
    "Hybridization": 2,
    "Bond Angles": 1,
    "Oxidation States": 1,
    "Redox Reactions": 1,
    "Labile vs. inert complexes": 1,
    "d-electron configuration": 1,
    "Inner orbital complexes": 1,
    "Reaction mechanisms": 1,
    "Outer sphere mechanisms": 1,
    "Electron tunneling": 1,
    "Inert oxidants and reductants": 1,
    "Coordination compounds": 1,
    "Denticity": 1,
    "Monodentate ligands": 1,
    "Ethylenediamine": 1,
    "spin states": 1,
    "oxoiron(IV) centres": 1,
    "synthetic analogues": 1,
    "natural occurring complexes": 1,
    "Electrolysis": 2,
    "Reduction": 1,
    "Oxidation": 1,
    "Cathode": 1,
    "Anode": 1,
    "Copper Refining": 1,
    "Anode Dissolution": 1,
    "Cathode Deposition": 1,
    "Anode Slimes": 1,
    "Oxidizing agents": 1,
    "Alternation effect": 1,
    "Disproportionation reactions": 1,
    "Electronegativity trends": 1,
    "Crystal Field Splitting": 1,
    "Electronic Transitions": 1,
    "T1g and T2g states": 1,
    "Dq parameter": 1,
    "Solvent system definition": 1,
    "Autoprotolysis reaction": 1,
    "Autoionization of aprotic solvents": 1,
    "Hydration of ions": 1,
    "Cation-exchange columns": 1,
    "Symbol": 1,
    "Elemental classification": 1,
    "Lanthanide compounds": 1,
    "Cp ligands": 1,
    "Equilibrium between different ligand binding modes": 1,
    "Cp* ligand": 1,
    "Isolation of compounds": 1,
    "Lattice enthalpy": 1,
    "Enthalpy of hydration": 1,
    "Solubility of ionic compounds": 1,
    "Radius ratio": 1,
    "Ionic radii": 1,
    "Electrostatic attraction": 1,
    "Crystal lattice distortion": 1,
    "Electron configuration": 3,
    "Atomic structure": 1,
    "Subshell filling order": 1,
    "closo structures": 1,
    "nido structures": 1,
    "arachno structures": 1,
    "metallacarboranes": 1,
    "isoelectronic fragments": 1,
    "Bonding energy": 1,
    "Thallium(I) compounds": 1,
    "Group 3A elements": 1,
    "Atomic radii trends": 1,
    "Character tables": 1,
    "C3v point group": 1,
    "Symmetry operations": 1,
    "Valence Shell Electron Pair Repulsion (VSEPR) theory": 1,
    "Sigma (\u03c3) bonds": 1,
    "Pi (\u03c0) bonds": 1,
    "Bond angles": 1,
    "Electronegativity": 5,
    "Pauling Electronegativity Scale": 1,
    "Born-Haber cycle": 1,
    "Lattice energy": 1,
    "Ionization energy": 3,
    "Electron affinity": 2,
    "Kapustinskii equation": 1,
    "Gibbs energy of hydration": 1,
    "proton affinity": 1,
    "equilibrium constant (Kw)": 1,
    "d-d transitions": 2,
    "charge transfer": 1,
    "band gap": 1,
    "valence band": 1,
    "conduction band": 1,
    "Laporte selection rule": 1,
    "noncentrosymmetric tetrahedral site": 1,
    "Ionic bonding": 2,
    "Alkali metals": 1,
    "Associative mechanism": 1,
    "Polarizability": 1,
    "Steric bulk": 1,
    "Transition metal complexes": 1,
    "Pauling Scale": 1,
    "Radioactive decay": 1,
    "Half-life": 1,
    "Decay series": 1,
    "Logarithmic equations": 1,
    "Iodine": 1,
    "Sodium chloride": 1,
    "Chlorine compounds": 1,
    "Sulfuric acid": 1,
    "Element discovery": 1,
    "Peroxide formation": 1,
    "Superoxide formation": 1,
    "Anti-fluorite structure": 1,
    "Monoxide preparation via reduction": 1,
    "N=O bonds": 1,
    "C=N bonds": 1,
    "da-pa bonding": 1,
    "sulfur nitrides": 1,
    "phosphorus nitrides": 1,
    "Group 1 elements": 1,
    "Reducing agents": 1,
    "Diagonal relationship": 1,
    "Standard electrode potentials": 1,
    "aqua ions": 1,
    "Isolobal fragments": 1,
    "Transition metal carbonyls": 1,
    "Electron count relationships": 1,
    "CO ligands": 1,
    "Structural isomerism": 1,
    "radiative forcing": 1,
    "greenhouse gases": 1,
    "oxygen cycle": 1,
    "nitrogen dioxide": 1,
    "d-d electronic transitions": 1,
    "spectrochemical series": 1,
    "crystal field stabilization energy (CFSE)": 1,
    "bond order": 1,
    "electron configuration": 1,
    "valence electrons": 1,
    "\u03c3 bond": 1,
    "\u03c0 backbonding": 1,
    "synergistic bonding": 1,
    "HOMO": 1,
    "LUMO": 1,
    "solvo-complexes": 1,
    "oxidative addition": 1,
    "reductive elimination": 1,
    "monohydride complexes": 1,
    "hydroformylation": 1,
    "Arsenic (V) oxide": 1,
    "Antimony (V) oxide": 1,
    "Bismuth (V) oxide": 1,
    "Oxy-acids of Phosphorus": 1,
    "Zintl phases": 1,
    "tetrahydridoborate ion": 1,
    "organometallic compounds": 1,
    "transmetallation": 1,
    "alkylaluminium compounds": 1,
    "Hydrogen compounds": 1,
    "Thermochemical cycles": 1,
    "Reduction reactions": 1,
    "Aluminosilicates": 1,
    "Zeolites": 1,
    "Silicon Carbide": 1,
    "Extended network solids": 1,
    "Molecular sieves": 1,
    "Wacker process": 1,
    "Palladium(II) catalysis": 1,
    "Deuterium incorporation": 1,
    "Pd(0) species": 1,
    "Ligand exchange": 1,
    "Crystal lattice": 1,
    "Oxy-acid salts": 1,
    "Hydrolysis of mercury(II) salts": 1,
    "Basic carbonate formation": 1,
    "Thermal decomposition of oxy-salts": 1,
    "Disproportionation reaction": 1,
    "Wave equation": 1,
    "Probability density": 1,
    "Energy levels": 1,
    "Kinetic energy": 1,
    "Potential energy": 1,
    "Gd-DOTA": 1,
    "Gd-DPTA": 1,
    "MRI scans": 1,
    "Atomic radius": 1,
    "Periodic trends": 1
  },
  "prerequisites": {
    "Understanding of periodic table trends": 3,
    "Basic knowledge of atomic structure": 4,
    "Understanding of colligative properties": 1,
    "Basic knowledge of ionic dissociation": 1,
    "Basic understanding of textbook structure": 1,
    "Understanding of crystal structures": 2,
    "Basic knowledge of ionic bonding": 2,
    "Familiarity with Born-Haber cycles": 1,
    "Group theory basics": 1,
    "Molecular orbital theory": 2,
    "Coordination chemistry basics": 6,
    "Ligand field theory": 2,
    "Coordination number concepts": 1,
    "Thermodynamics": 1,
    "Electrochemistry basics": 1,
    "Basic redox chemistry": 1,
    "Understanding of oxidation states": 2,
    "Knowledge of acid-base equilibria": 1,
    "Atomic Orbitals": 1,
    "Electron Configuration": 2,
    "Bonding in Diatomic Molecules": 1,
    "Fundamentals of solid-state chemistry": 1,
    "Materials chemistry basics": 1,
    "Structural chemistry principles": 1,
    "Basic understanding of coordination compounds": 1,
    "Knowledge of ligands and coordination numbers": 1,
    "Familiarity with photographic processes": 1,
    "Isomerism in coordination compounds": 1,
    "Concept of chirality and enantiomers": 1,
    "Understanding of covalent and ionic bonding": 1,
    "Knowledge of oxidation states and electronegativity": 1,
    "Basic knowledge of hydrolysis reactions": 1,
    "Redox reactions": 7,
    "acid-base chemistry": 1,
    "oxidation states": 2,
    "Crystal Field Theory basics": 3,
    "Electron configuration in transition metals": 1,
    "Magnetic properties of ions": 1,
    "Understanding of periodic trends": 3,
    "Basic knowledge of intermolecular forces": 1,
    "Basic understanding of elemental discovery history": 1,
    "Knowledge of gas properties": 1,
    "Atomic orbitals": 1,
    "Electron configuration": 6,
    "basic concepts of coordination chemistry": 1,
    "ligand classification": 1,
    "metal-ligand bonding": 1,
    "basic molecular structure concepts": 1,
    "understanding of molecular vibrations": 1,
    "knowledge of NMR spectroscopy principles": 1,
    "periodic trends": 1,
    "electron configuration": 2,
    "d-orbital splitting": 1,
    "ligand field effects": 1,
    "Understanding of intermolecular forces": 1,
    "Basic thermodynamics concepts": 1,
    "Basic knowledge of element properties": 1,
    "Understanding of chemical reactions and decomposition": 1,
    "Familiarity with gas-phase reactions": 1,
    "Metal ion properties": 1,
    "Enzyme mechanisms": 1,
    "Coordination chemistry": 4,
    "Coordination complexes": 2,
    "Reaction mechanisms": 2,
    "Transition metals": 1,
    "Basic understanding of periodic table organization": 2,
    "Knowledge of atomic structure basics": 2,
    "Periodic trends": 7,
    "Acid-base chemistry": 1,
    "Coordination compounds": 1,
    "Gibbs free energy": 1,
    "electrochemical cells": 1,
    "Electronic configurations of atoms": 1,
    "Covalent bonding": 1,
    "Hybridization concepts": 2,
    "Crystal field theory basics": 2,
    "Understanding of ionic bonding": 4,
    "Knowledge of X-ray diffraction techniques": 1,
    "Quantum numbers": 2,
    "Angular momentum operators": 1,
    "Understanding of crystal lattices": 2,
    "Knowledge of unit cells": 1,
    "Familiarity with symmetry operations": 1,
    "Knowledge of oxidation states": 1,
    "Basic knowledge of halogen chemistry": 1,
    "Fundamentals of Lewis acid-base theory": 1,
    "Basic understanding of chemical bonding": 1,
    "basic understanding of molecular symmetry": 1,
    "knowledge of point group classification": 1,
    "Valence electrons": 1,
    "ionic charge": 1,
    "Basic understanding of electromagnetic spectrum": 1,
    "Fundamentals of light interaction with matter": 1,
    "Knowledge of spectroscopic instruments": 1,
    "Knowledge of metallic bonding": 1,
    "Basic concepts of sphere packing": 1,
    "basic stoichiometry": 1,
    "knowledge of alkali metals": 1,
    "understanding of redox reactions": 1,
    "Electronic structure of transition metals": 2,
    "Spectroscopy basics": 1,
    "Understanding of redox reactions": 1,
    "Familiarity with common inorganic compounds": 1,
    "kinetics": 1,
    "thermodynamics": 1,
    "free energy change (\u0394G)": 1,
    "Chemical bonding concepts": 1,
    "Thermodynamics basics": 1,
    "Knowledge of diatomic molecules": 1,
    "Basic understanding of chemistry concepts": 1,
    "Crystal structures and unit cells": 1,
    "Ionic bonding and lattice energy": 1,
    "Solid-state properties of materials": 1,
    "Oxidation states": 2,
    "Acid-base reactions": 3,
    "Molecular Orbital Theory basics": 1,
    "Coordination Complexes": 1,
    "Basic understanding of inorganic chemistry principles": 1,
    "Knowledge of common acids and their reactions": 1,
    "Basic knowledge of periodic trends": 1,
    "Lewis Structures": 1,
    "VSEPR Theory": 1,
    "Valence Bond Theory": 1,
    "Electrochemical Concepts": 1,
    "Electronic configurations of transition metals": 4,
    "Basic concepts of chemical bonding": 1,
    "Understanding of ions and their charges": 1,
    "Knowledge of molecular structure": 1,
    "Crystal Field Theory": 1,
    "Spin states in transition metal complexes": 1,
    "Basic electrochemical principles": 1,
    "Electrochemical Cells": 1,
    "Redox Reactions": 1,
    "Electrode Potentials": 1,
    "Symmetry principles in molecular structures": 1,
    "Br\u00f8nsted\u2013Lowry definition of acids and bases": 1,
    "Concept of proton transfer": 1,
    "Coordination chemistry fundamentals": 1,
    "Understanding of coordination chemistry": 1,
    "Knowledge of lanthanide elements": 1,
    "Basic knowledge of ligand types and their bonding modes": 1,
    "Thermodynamics of ionic compounds": 1,
    "Ionic radii trends": 1,
    "Basic crystal structure concepts": 1,
    "Knowledge of coordination numbers": 1,
    "Periodic table organization": 1,
    "Subshell notation": 1,
    "cluster chemistry concepts": 1,
    "main group element properties": 1,
    "Bonding theories": 1,
    "Understanding of molecular symmetry": 1,
    "Knowledge of point groups": 1,
    "Understanding of molecular orbital theory": 1,
    "Knowledge of hybridization concepts": 1,
    "Familiarity with Lewis structures": 1,
    "Knowledge of thermodynamic quantities": 1,
    "Familiarity with periodic trends": 1,
    "Thermodynamics concepts": 1,
    "Band theory of solids": 1,
    "Crystal field theory": 1,
    "Bonding types": 1,
    "Electron configuration of transition metals": 1,
    "Periodic Trends": 1,
    "Chemical Bonding Fundamentals": 1,
    "Basic understanding of nuclear reactions": 1,
    "Concept of isotopes": 1,
    "Logarithms": 1,
    "Basic knowledge of chemical elements and their properties": 1,
    "Understanding of acid-base reactions": 1,
    "Familiarity with historical context of chemical discoveries": 1,
    "Ionic bonding": 1,
    "Crystal structures": 1,
    "Understanding of oxoanions": 1,
    "Knowledge of bonding types (covalent, ionic)": 1,
    "Electrochemical series": 1,
    "d-block elements": 1,
    "electronic configuration": 1,
    "Understanding of coordination compounds": 1,
    "Knowledge of electron configuration in transition metals": 1,
    "Familiarity with ligand field theory": 1,
    "basic understanding of atmospheric composition": 1,
    "knowledge of chemical reactions and stoichiometry": 1,
    "Coordination geometry": 1,
    "molecular orbital theory": 1,
    "bond order calculation": 1,
    "coordination chemistry": 1,
    "organometallic chemistry": 1,
    "reaction mechanisms": 1,
    "Oxidation states of main group elements": 1,
    "Preparation of oxides": 1,
    "Hydrolysis reactions": 1,
    "Knowledge of periodic trends": 1,
    "Familiarity with organometallic chemistry basics": 1,
    "Thermochemistry": 1,
    "Hydrogen chemistry": 1,
    "Periodic trends in Group 14 elements": 1,
    "Basic knowledge of ionic and covalent bonding": 1,
    "Basic concepts of catalytic mechanisms": 1,
    "Understanding of oxidation-reduction reactions": 1,
    "Knowledge of transition metals and their complexes": 1,
    "Ion formation": 1,
    "Understanding of basic salt formation": 1,
    "Knowledge of hydrolysis reactions": 1,
    "Familiarity with thermal decomposition reactions": 1,
    "Classical mechanics": 1,
    "Wave-particle duality": 1,
    "Electron behavior": 1,
    "Magnetic resonance imaging principles": 1,
    "Concept of periodic trends": 1
  },
  "leads_to": {
    "Chemical Bonding": 2,
    "Reactivity of Elements": 1,
    "Electrochemical properties of complexes": 1,
    "Magnetic properties and electron configuration": 1,
    "Textbook content chapters": 1,
    "Publication details": 1,
    "Electrochemical processes": 2,
    "Semiconductor physics": 1,
    "Crystal Field Theory": 7,
    "Ligand Field Theory": 4,
    "Electrochemical kinetics": 1,
    "Reaction mechanisms": 1,
    "Electrochemical cells": 3,
    "Corrosion processes": 1,
    "Molecular Orbital Calculations": 1,
    "Electronic Structure of Molecules": 1,
    "Advanced structural solid-state chemistry": 1,
    "Applications of mesostructured materials": 1,
    "Photographic chemistry": 1,
    "Coordination compound synthesis": 1,
    "Advanced stereochemistry of coordination complexes": 1,
    "Chiral ligand design in catalysis": 1,
    "Coordination chemistry of halides": 1,
    "Electrochemical properties of metal halides": 1,
    "Electrochemical series": 1,
    "Electrochemistry": 3,
    "Magnetic properties of transition metal complexes": 1,
    "Electronic structure of coordination compounds": 1,
    "Comparative analysis of hydrides": 1,
    "Acid-Base Behavior in Different Solvents": 1,
    "Modern noble gas applications": 1,
    "Gas spectroscopy": 1,
    "Chemical bonding in molecules": 1,
    "Molecular orbital theory applications": 1,
    "coordination polymer formation": 1,
    "ligand field theory": 1,
    "Coordination Chemistry": 2,
    "Molecular Spectroscopy": 1,
    "Coordination Compounds": 1,
    "Reactivity of Main Group Elements": 1,
    "Spectrochemical series": 2,
    "Crystal Field Stabilization Energy (CFSE)": 2,
    "Electron delocalization in metals": 1,
    "Metallic conductivity and electrical properties": 1,
    "Industrial chemical processes": 2,
    "Reactive intermediates and their applications": 1,
    "Enzyme inhibition mechanisms": 1,
    "Catalytic reaction mechanisms": 1,
    "Magnetic properties of complexes": 2,
    "Crystal Field Stabilization Energy": 1,
    "Homogeneous catalysis": 1,
    "Organometallic chemistry": 1,
    "Periodic trends": 3,
    "Chemical bonding": 2,
    "Silicate structures": 1,
    "Coordination chemistry of Group 4A elements": 1,
    "Electrochemical cell potentials": 1,
    "Redox reactions analysis": 1,
    "Predicting chemical properties": 1,
    "Understanding chemical bonding": 1,
    "VSEPR theory": 1,
    "Molecular geometry prediction": 1,
    "Crystal field stabilization energy calculations": 1,
    "Coordination complexes and their geometries": 1,
    "Molecular orbital theory": 2,
    "Electronic transitions in spectroscopy": 1,
    "Crystallographic analysis": 1,
    "X-ray diffraction techniques": 1,
    "Coordination chemistry": 9,
    "Crystal field theory": 5,
    "Formation of complex ions": 1,
    "Coordination number and geometry": 1,
    "determination of molecular geometry": 1,
    "application of symmetry in spectroscopy": 1,
    "Molecular geometry": 1,
    "resonance stabilization": 1,
    "Infrared spectroscopy": 1,
    "Quantitative analysis techniques": 1,
    "Coordination compounds": 1,
    "electrochemical processes": 1,
    "coordination chemistry": 1,
    "Electron transfer reactions": 1,
    "Photochemistry of coordination complexes": 1,
    "reaction mechanisms": 1,
    "coordination complex reactivity": 1,
    "Nitrogen compounds and their reactions": 1,
    "Chemical bonding in diatomic molecules": 1,
    "Chapter content understanding": 1,
    "Textbook usage": 1,
    "Photovoltaic materials": 1,
    "Solid-state synthesis techniques": 1,
    "Oxidation-reduction reactions": 3,
    "Organometallic Chemistry": 1,
    "Real-world applications of inorganic chemistry": 1,
    "Industrial and environmental applications": 1,
    "Coordination chemistry of metal complexes": 1,
    "Reactivity patterns in main group elements": 1,
    "Extraction metallurgy": 1,
    "Coordination complex formation": 1,
    "Inorganic reaction mechanisms": 1,
    "Magnetic properties of coordination compounds": 1,
    "Reactivity of metal centers in enzymes": 1,
    "Corrosion": 1,
    "Electroplating": 1,
    "Corrosion Mechanisms": 1,
    "Environmental chemistry": 1,
    "Non-aqueous solvents": 1,
    "Acid-base reactions in different solvents": 1,
    "Crystal field stabilization energy (CFSE)": 1,
    "Ligand field theory": 2,
    "Chemical bonding and reactivity": 1,
    "Electronic structure of lanthanide complexes": 1,
    "Solubility product constants": 1,
    "Hydration energies in solution chemistry": 1,
    "Lattice energy calculations": 1,
    "Chemical bonding theory": 1,
    "isoelectronic series": 1,
    "metallorganic chemistry": 1,
    "Transition metal chemistry": 1,
    "Molecular spectroscopy": 1,
    "Reactivity Trends": 1,
    "Solid-state energetics applications": 1,
    "pH calculations": 1,
    "Colorimetry and spectroscopy": 1,
    "Solid-state chemistry of pigments": 1,
    "Periodic trends in alkali metals": 1,
    "Ionic compound formation": 1,
    "Reaction mechanisms in coordination chemistry": 1,
    "Coordination number effects on reactivity": 1,
    "Bond Polarity": 1,
    "Ionic vs. Covalent Bonds": 1,
    "Radiometric dating": 1,
    "Nuclear medicine": 1,
    "History of chemical element discovery": 1,
    "Properties and uses of halogens": 1,
    "Crystal chemistry of oxides": 1,
    "Group 5A chemistry": 1,
    "Bonding in transition metals": 1,
    "Frost Diagrams": 1,
    "Predicting cluster geometries": 1,
    "Designing new inorganic compounds": 1,
    "Climate Change Mechanisms": 1,
    "Air Pollution Chemistry": 1,
    "Jahn-Teller effect": 1,
    "molecular orbital diagrams": 1,
    "reactivity of diatomic molecules": 1,
    "Molecular Orbital Theory in Coordination Chemistry": 1,
    "homologation processes": 1,
    "hydrogenolysis mechanisms": 1,
    "Acid-base chemistry": 1,
    "Solid-state chemistry": 1,
    "Thermochemistry applications": 1,
    "Redox chemistry": 1,
    "Applications of inorganic solids in industry": 1,
    "Advanced materials chemistry": 1,
    "Mechanistic studies of other catalytic systems": 1,
    "Applications of transition metal catalysis in industry": 1,
    "Chemical bonding theories": 1,
    "Coordination chemistry of transition metals": 1,
    "Thermal stability of inorganic compounds": 1,
    "Quantum chemical calculations": 1,
    "Atomic structure theory": 1,
    "MRI contrast agent design": 1,
    "Paramagnetic complexes in biology": 1,
    "Reactivity patterns of elements": 1
  },
  "summary": {
    "n_topics": 44,
    "n_subtopics": 102,
    "n_concepts": 408,
    "n_prereqs": 209,
    "n_leads_to": 165
  }
}