{
  "topics": {
    "Main Group Chemistry": 27,
    "Oxides and Their Chemical Behavior": 1,
    "Coordination Compounds": 17,
    "Molecular Orbital Theory": 1,
    "Molecular Structure and Bonding": 2,
    "Inorganic Chemistry of Transition Metals": 1,
    "Acid-Base Chemistry": 1,
    "Electrochemical Reactions": 1,
    "Symmetry and Molecular Structure": 1,
    "Periodic Trends": 2,
    "Environmental Chemistry": 1,
    "Catalysis with Organometallics": 1,
    "Solid State Chemistry": 1,
    "Solid State Chemistry and Bonding": 1,
    "Coordination Chemistry": 6,
    "Chemical Bonding": 2,
    "Quantum Mechanics": 1,
    "Electrochemistry": 2,
    "Inorganic Solid State Chemistry": 2,
    "Crystal Structures and Packing": 1,
    "Redox Reactions and Electrochemistry": 1,
    "Radioactivity and Nuclear Chemistry": 1,
    "Crystal Structures and Lattices": 1,
    "Periodic Table and Elemental Properties": 2,
    "Solid-State Chemistry": 2,
    "Group Theory and Molecular Symmetry": 1,
    "Inorganic Chemistry": 3,
    "Periodic Trends and Atomic Properties": 1,
    "Metallic Bonding": 1,
    "Crystal Field Theory": 2,
    "Biological Inorganic Chemistry": 1,
    "History of Inorganic Chemistry": 1,
    "Electrochemical Processes": 1,
    "Spectroscopy": 1,
    "Acids and Bases": 1,
    "Inorganic Chemistry Fundamentals": 1,
    "Electronic Structure and Periodicity": 1,
    "Catalytic Chemistry and Industrial Processes": 1,
    "Cluster Chemistry": 1,
    "Bioinorganic Chemistry and Applications": 1,
    "Quantum Mechanics in Chemistry": 1,
    "Applications in Everyday Life": 1,
    "Inorganic Pigments and Color Chemistry": 1,
    "Ionic Compounds and Lattice Energy": 1,
    "Oxidation-Reduction Chemistry": 1
  },
  "subtopics": {
    "Oxidation States and Redox Behavior of Group 15 Elements": 1,
    "Acid-Base Character of Metal and Non-Metal Oxides": 1,
    "Hydrides and Their Properties": 1,
    "Coordination Chemistry and Reaction Mechanisms": 1,
    "Colligative Properties and Structure Determination": 1,
    "Molecular Orbital Diagrams and Bonding in Diatomic Molecules": 1,
    "Valence Bond Theory and Molecular Geometry": 1,
    "Reactivity of Transition Metals with Acids and Complexing Agents": 1,
    "Acid-Base Equilibria and Thermodynamics": 1,
    "Molecular Orbital Theory in Metal Carbonyls": 1,
    "Electron Transfer Mechanisms": 2,
    "Binary Compounds of Chlorine with Metals and Nonmetals": 1,
    "Oxy-acid Salts and Hydrolysis": 1,
    "Point Groups and Symmetry Elements": 1,
    "Electronegativity and Periodic Trends": 1,
    "Greenhouse Gases and Atmospheric Chemistry": 1,
    "Catalytic Mechanisms and Complex Behavior": 1,
    "Ionic Crystal Structures": 1,
    "Electronegativity and Chemical Bonding": 1,
    "Reactions and Oxidation States of Group 14 Elements": 1,
    "Defects in Solids and Electrical Conduction": 1,
    "Heteroboranes and Metallacarboranes": 1,
    "Catalytic Mechanisms": 1,
    "Lewis Structures and Electron Distribution": 1,
    "Schrodinger Equation": 1,
    "Electrochemical Potential and Frost Diagrams": 1,
    "Radius Ratio and Crystal Structure Prediction": 1,
    "Stereochemistry and Molecular Dynamics": 1,
    "Oxides and Oxyacids of the Nitrogen Family": 1,
    "Preparation and Properties of Elements and Compounds": 1,
    "Discovery and Properties of Iodine": 1,
    "Close-Packed Structures in Metals": 1,
    "Oxidation-Reduction Reactions in Aqueous Solutions": 1,
    "Group 13 Elements and Their Properties": 1,
    "Radioactive Decay and Half-Life": 1,
    "Crystal Systems and Bravais Lattices": 1,
    "Coordination Numbers and Reaction Mechanisms": 1,
    "Elemental Data and Classification": 1,
    "Applications of Coordination Compounds": 1,
    "Hydrolysis and Covalent Nature of Halides": 1,
    "Mesostructured Materials and MCM-41": 1,
    "Character Tables and Point Groups": 1,
    "Textbook Introduction and Publication Information": 1,
    "Electron Affinity and Ionization Energy Trends": 1,
    "Properties and Behavior of Metallic Bonds": 1,
    "Ligand Field Stabilization Energy (LFSE)": 1,
    "Periodic Trends and Atomic Properties": 1,
    "Electronic Structure and Color of Transition Metal Complexes": 1,
    "Acid-Base Catalysis": 1,
    "Kinetics of Coordination Compounds": 1,
    "Discovery of Noble Gases": 1,
    "Molecular Orbital Theory": 1,
    "Coordination Compounds and Ligands": 1,
    "Molecular Orbital Theory and Ligand Orbitals": 1,
    "Ionic Bonding and Electron Transfer": 1,
    "Electrolysis and Metal Refining": 1,
    "Ligand Field Theory": 1,
    "Zintl Phases and Organometallic Compounds": 1,
    "Electronic Structure of Metal Complexes": 1,
    "Alkaline Earth Elements and Their Compounds": 1,
    "UV-Visible Spectroscopy": 1,
    "Periodic Law and Trends": 1,
    "Hydrogen Compounds and Their Reactions": 1,
    "Complex Ion Formation and Structure": 1,
    "Nitrogen Compounds and Bonding": 1,
    "Solvent System Definition of Acids and Bases": 1,
    "Reactions and Synthesis of Alkali Metal Compounds": 1,
    "Electron Configuration of Elements": 1,
    "Charge-Transfer Transitions": 1,
    "Lanthanide Complexes and Ligand Behavior": 1,
    "Group 1 Elements and Their Properties": 1,
    "Hydration and Crystal Field Theory": 1,
    "Crystal Field Theory and Electronic Transitions": 1,
    "Mechanisms of Oxidation Reactions": 1,
    "Isolobal Fragments and Their Relationships": 1,
    "Electronic Spectra and Transitions": 1,
    "Born-Haber Cycles and Lattice Energy Calculations": 1,
    "Stereochemistry and Isomerism": 1,
    "MRI Contrast Agents": 1,
    "Oxidation States and Oxides of Alkali Metals": 1,
    "Term Symbols and Electron Configuration": 1,
    "Bond Order and Molecular Structure": 1,
    "Advanced Inorganic Chemistry Applications": 1,
    "Stereochemistry of Covalent Compounds": 1,
    "Inert-Pair Effect": 1,
    "Crystal Field Theory": 1,
    "Electronic Transitions and Color Origin": 1,
    "Lattice Enthalpy and Solubility of Halides": 1,
    "Lewis Acids and Bases in Coordination Chemistry": 1,
    "Nitrogen and Its Compounds": 1,
    "Polydentate Ligands": 1,
    "Element Classification and Properties": 1,
    "Group 5A: The Pnicogens": 1,
    "Metal-Ligand Bonding and Electronic Structure": 1,
    "Alkali Metals and Ionic Bonding": 1,
    "Perovskite Structures and Properties": 1,
    "Frost Diagrams and Redox Reactions": 1,
    "Textbook Introduction and Publisher Information": 1,
    "Extended Silicon-Oxygen Compounds": 1,
    "Electrolysis and Redox Reactions": 1,
    "Group 4A Elements and Their Oxides": 1
  },
  "concepts": {
    "Oxidizing agents": 1,
    "Alternation effect": 1,
    "Inert-pair effect": 2,
    "Disproportionation reactions": 1,
    "Periodic trends": 2,
    "Metal oxides": 1,
    "Basic character": 1,
    "Oxidation state": 1,
    "Acidic oxides": 1,
    "Salt formation": 1,
    "Hydrides": 2,
    "Boiling Points": 1,
    "Melting Points": 1,
    "Enthalpies of Vaporization": 1,
    "Coordination number": 4,
    "Labile and inert complexes": 1,
    "d-electron configuration": 1,
    "Inner orbital complexes": 1,
    "Reaction mechanism": 1,
    "Cryoscopic measurements": 1,
    "Freezing point depression": 1,
    "Particle dissociation": 1,
    "Molecular Orbital Theory": 2,
    "Bond Order": 1,
    "Antibonding Orbitals": 1,
    "Electron Configuration": 1,
    "Homonuclear Diatomic Molecules": 1,
    "Sigma bonds": 1,
    "Pi bonds": 1,
    "Hybridization": 2,
    "VSEPR theory": 1,
    "Bond angle": 1,
    "Oxidizing acids": 1,
    "Complexing agents": 2,
    "Aqua regia": 1,
    "Cyanide leaching": 1,
    "Tetrachloroaurate(III) ion": 1,
    "Gibbs energy of hydration": 1,
    "proton affinity": 1,
    "equilibrium constant (Kw)": 1,
    "Metal-Carbonyl Bonding": 1,
    "Electron Count": 1,
    "Backbonding": 1,
    "Ligand-Centered Orbitals": 1,
    "Electron transfer reactions": 1,
    "Gibbs free energy change (\u2206rG)": 1,
    "Activation energy (\u2206\u2021G)": 1,
    "Rate equations": 1,
    "Transition state theory": 1,
    "Binary chlorides": 1,
    "Metal chlorides": 1,
    "Nonmetal chlorides": 1,
    "Periodic trends in chloride compounds": 1,
    "Oxy-acid salts": 1,
    "Hydrolysis of mercury(II) salts": 1,
    "Basic carbonate formation": 1,
    "Thermal decomposition of oxy-salts": 1,
    "Disproportionation reaction": 1,
    "mirror plane of symmetry": 1,
    "\u03c3v": 1,
    "\u03c3v'": 1,
    "Electronegativity": 5,
    "Ionization Energy": 2,
    "Electron Affinity": 2,
    "Pauling Electronegativity Scale": 1,
    "radiative forcing": 1,
    "greenhouse gases": 1,
    "oxygen cycle": 1,
    "nitrogen dioxide": 1,
    "solvo-complexes": 1,
    "oxidative addition": 1,
    "reductive elimination": 1,
    "monohydride complexes": 1,
    "hydroformylation": 1,
    "Close-packed structures": 2,
    "Hole-filling in ionic lattices": 1,
    "Rock-salt structure": 1,
    "ccp (cubic close-packed) arrangement": 1,
    "hcp (hexagonal close-packed) arrangement": 1,
    "Pauling Scale": 1,
    "Chemical Bond Types": 1,
    "Silicon's reaction with alkali metal hydroxide": 1,
    "Oxidation states of tin and lead": 1,
    "Formation of SiF6^2- ion": 1,
    "Carbides as binary compounds of carbon": 1,
    "Reactions of tin and lead with acids": 1,
    "Point defects": 1,
    "Electrical conduction mechanisms": 1,
    "Born-Haber cycle": 1,
    "Oxidation states": 3,
    "Standard enthalpy change": 1,
    "closo structures": 1,
    "nido structures": 1,
    "arachno structures": 1,
    "metallacarboranes": 1,
    "isoelectronic fragments": 1,
    "Wilkinson\u2019s catalyst": 1,
    "Hydrogenation reaction": 1,
    "Catalytic cycle": 1,
    "Lewis structures": 1,
    "octet rule": 1,
    "resonance": 1,
    "Wave equation": 1,
    "Probability density": 1,
    "Energy levels": 1,
    "Kinetic energy": 1,
    "Potential energy": 1,
    "Frost diagram": 1,
    "standard reaction Gibbs energy": 1,
    "exergonic reactions": 1,
    "Radius ratio": 1,
    "Ionic radii": 2,
    "Electrostatic attraction": 1,
    "Crystal lattice distortion": 1,
    "stereochemically nonrigid molecules": 1,
    "tautomerism": 1,
    "fluxional structures": 1,
    "inert pair effect": 1,
    "NMR spectroscopy": 1,
    "Arsenic (V) oxide": 1,
    "Antimony (V) oxide": 1,
    "Bismuth (V) oxide": 1,
    "Oxy-acids of Phosphorus": 1,
    "Fractional distillation of liquid air": 1,
    "Thermal decomposition": 1,
    "Azides": 1,
    "Nickel carbonyl": 1,
    "Iodine": 1,
    "Sodium chloride": 1,
    "Chlorine compounds": 1,
    "Sulfuric acid": 1,
    "Element discovery": 1,
    "Octahedral holes": 1,
    "Tetrahedral holes": 1,
    "Cubic close-packed (ccp)": 1,
    "Hexagonal close-packed (hcp)": 1,
    "Redox reactions": 1,
    "Hydrogen peroxide decomposition": 1,
    "Ferric and ferrous ions": 1,
    "Acid-base equilibria": 1,
    "electron density": 1,
    "oxidation states": 2,
    "metallic character": 1,
    "Z-effective": 1,
    "Radioactive decay": 1,
    "Half-life period": 1,
    "Decay series": 1,
    "Isotopes": 1,
    "Logarithmic equations": 1,
    "Body-centered cubic": 1,
    "Face-centered cubic": 1,
    "Base-centered orthorhombic": 1,
    "Face-centered orthorhombic": 1,
    "Hexagonal close packing": 1,
    "Associative mechanism": 1,
    "Polarizability": 1,
    "Steric bulk": 1,
    "Transition metal complexes": 1,
    "Atomic number": 2,
    "Molar mass": 2,
    "Symbol": 2,
    "Elemental classification": 1,
    "Coordination compounds in photography": 1,
    "Iron(III) hexacyanoferrate(II) (Turnbull's blue)": 1,
    "Cyanide ligands": 1,
    "Photographic sensitization": 1,
    "Coordination compound structure": 1,
    "Hydrolysis of covalent halides": 1,
    "Octet expansion limitations": 1,
    "Covalent vs. ionic character of metal halides": 1,
    "Stabilization of high oxidation states by fluorine": 1,
    "Formation of high oxidation state fluorides": 1,
    "Mesostructured channels": 1,
    "MCM-41": 1,
    "Sol\u2013gel process": 1,
    "Structural inorganic chemistry": 1,
    "Solid-state applications": 1,
    "C3v point group": 1,
    "Character tables": 1,
    "Reduction of representations": 1,
    "Pergamon Press": 1,
    "Copyright": 1,
    "Library of Congress Catalog Card": 1,
    "Atomic Radius": 1,
    "Metallic bond": 1,
    "Enthalpy of sublimation": 1,
    "Enthalpy of dissociation": 1,
    "Electron mobility": 1,
    "LFSE": 1,
    "high-spin": 1,
    "low-spin": 1,
    "d-orbital splitting": 6,
    "magnetic moment": 1,
    "Atomic radius": 1,
    "Electron affinity": 1,
    "Ionization energy": 2,
    "d-d transitions": 2,
    "aqua ions": 1,
    "Metal ion catalysis": 1,
    "Zinc in acid-base catalysis": 1,
    "Iron(II)/Iron(III) enzymes": 1,
    "Magnesium(II) in pyruvate kinase": 1,
    "Manganese in arginase": 1,
    "Nickel(II) in urease": 1,
    "labile and inert": 1,
    "energy of activation": 1,
    "free energy": 1,
    "enthalpy": 1,
    "entropy": 1,
    "Noble gases": 1,
    "Isolation techniques": 1,
    "Historical discoveries": 1,
    "Molecular orbital energy-level diagram": 1,
    "Bonding and antibonding orbitals": 1,
    "Valence electrons distribution": 1,
    "Coordination compounds": 1,
    "Ligands": 1,
    "Denticity": 1,
    "Monodentate ligands": 1,
    "Ethylenediamine": 1,
    "SALC orbitals": 1,
    "Molecular orbitals": 1,
    "Ligand orbitals": 1,
    "Electron transfer": 1,
    "Ionic bonding": 2,
    "Crystal lattice": 1,
    "Noble gas configuration": 1,
    "Electrolysis": 2,
    "Copper Refining": 1,
    "Anode Dissolution": 1,
    "Cathode Deposition": 1,
    "Anode Slimes": 1,
    "Crystal Field Theory": 2,
    "high-spin complex": 1,
    "low-spin complex": 1,
    "ligand field": 1,
    "Zintl phases": 1,
    "Zintl ions": 1,
    "organometallic compounds": 1,
    "transmetallation": 1,
    "spin state": 1,
    "oxoiron(IV) centres": 1,
    "synthetic analogues": 1,
    "natural occurring complexes": 1,
    "Acetylide anions": 1,
    "Calcium carbide": 1,
    "Beryllium carbide": 1,
    "Hydrides of alkaline earth metals": 1,
    "Calcium cyanamide": 2,
    "UV-Visible spectroscopy": 1,
    "Absorbance": 1,
    "Cuvette": 1,
    "Optically transparent materials": 1,
    "Wavelength": 1,
    "effective nuclear charge (Za)": 1,
    "atomic radii (r)": 1,
    "ionization energies (IE)": 1,
    "electron affinities (EA)": 1,
    "electronegativities (EN)": 1,
    "Hydrogen compounds": 1,
    "Thermochemical cycles": 1,
    "Reduction reactions": 1,
    "Ligands (NH3, CN-, SCN-)": 1,
    "Crystal field theory (bond stability)": 1,
    "Octahedral geometry": 2,
    "Complex cations (e.g., [Cr(NH3)6]\u00b3+)": 1,
    "Double salts (alum type)": 1,
    "N=O bonds": 1,
    "C=N bonds": 1,
    "da-pa bonding": 1,
    "sulfur nitrides": 1,
    "phosphorus nitrides": 1,
    "Solvent system definition": 1,
    "Autoprotolysis reaction": 1,
    "Autoionization of aprotic solvents": 1,
    "alkali metal compounds": 1,
    "synthesis of metal iodides": 1,
    "reaction with water": 1,
    "standard reduction potentials": 1,
    "hygroscopicity": 1,
    "Electron configuration": 2,
    "Atomic structure": 1,
    "Subshell filling order": 1,
    "LMCT transitions": 1,
    "ligand-to-metal charge-transfer": 1,
    "optical electronegativities": 1,
    "Lanthanide compounds": 1,
    "Cp ligands": 1,
    "Equilibrium between different ligand binding modes": 1,
    "Cp* ligand": 1,
    "Isolation of compounds": 1,
    "Group 1 elements": 1,
    "Reducing agents": 1,
    "Diagonal relationship": 1,
    "Standard electrode potentials": 1,
    "Hydration of ions": 1,
    "Cation-exchange columns": 1,
    "d-d electronic transitions": 1,
    "spectrochemical series": 1,
    "crystal field stabilization energy (CFSE)": 1,
    "Jahn-Teller effect": 1,
    "tetragonal distortion": 1,
    "Wacker process": 1,
    "Palladium catalysis": 1,
    "Deuterium incorporation": 1,
    "Pd(II) complexes": 1,
    "Pt(II) complexes": 1,
    "electron transfer": 1,
    "outer sphere mechanisms": 1,
    "bridging ligands": 1,
    "Isolobal fragments": 1,
    "Transition metal carbonyls": 1,
    "Electron count relationships": 1,
    "Crystal Field Splitting": 1,
    "Electronic Transitions": 1,
    "T1g and T2g states": 1,
    "Dq parameter": 1,
    "Born-Haber cycles": 1,
    "Lattice energy (U)": 1,
    "Ionization energy (IE)": 1,
    "Electron affinity (EA)": 1,
    "Kapustinskii equation": 1,
    "Coordination isomerism": 1,
    "Chirality in coordination complexes": 1,
    "Ligand chirality": 1,
    "Fac and mer isomers": 1,
    "Enantiomers": 1,
    "Gd-DOTA": 1,
    "Gd-DPTA": 1,
    "MRI scans": 1,
    "Peroxide formation": 1,
    "Superoxide formation": 1,
    "Anti-fluorite structure": 1,
    "Monoxide preparation via reduction": 1,
    "Term Symbols": 1,
    "Hund's Rule": 1,
    "Orbital Angular Momentum": 1,
    "Spin Angular Momentum": 1,
    "Vector Model": 1,
    "bond order": 1,
    "electron configuration": 1,
    "valence electrons": 1,
    "Inorganic chemistry applications": 1,
    "Everyday life relevance": 1,
    "Valence bond theory": 1,
    "Electron pair repulsion": 1,
    "Linear molecular geometry": 1,
    "sp hybridization": 1,
    "Boron trifluoride structure": 1,
    "Bonding energy": 1,
    "Thallium(I) compounds": 1,
    "Group 3A elements": 1,
    "Atomic radii trends": 1,
    "paramagnetism": 1,
    "ligands": 1,
    "octahedral complexes": 1,
    "charge transfer": 1,
    "band gap": 1,
    "valence band": 1,
    "conduction band": 1,
    "Laporte selection rule": 1,
    "noncentrosymmetric sites": 1,
    "Lattice enthalpy": 1,
    "Enthalpy of hydration": 1,
    "Solubility of ionic compounds": 1,
    "Formation enthalpy": 1,
    "Lewis acid": 1,
    "Lewis base": 1,
    "coordinate-covalent bond": 1,
    "adduct": 1,
    "electron-pair acceptor": 1,
    "electron-pair donor": 1,
    "Nitrogen molecule (N2)": 1,
    "Dissociation energy": 1,
    "Isomerism": 1,
    "Ammonia production": 1,
    "polydentate ligands": 1,
    "bidentate ligands": 1,
    "tridentate ligands": 1,
    "tetradentate ligands": 1,
    "coordination complexes": 1,
    "Pnicogens": 1,
    "Bond Angles": 1,
    "Oxidation States": 1,
    "Redox Reactions": 1,
    "\u03c3 bond": 1,
    "\u03c0 backbonding": 1,
    "synergistic bonding": 1,
    "HOMO": 1,
    "LUMO": 1,
    "Alkali metals": 1,
    "Perovskite structure (ABX3)": 1,
    "Ferroelectric and piezoelectric properties": 1,
    "Anti-perovskites (XX\u2032A3)": 1,
    "Solid solutions in perovskites": 1,
    "Crystal structure of BaTiO3": 1,
    "Frost diagrams": 1,
    "oxidizing agents": 1,
    "disproportionation": 1,
    "acidic vs. basic solutions": 1,
    "redox reactions": 1,
    "Inorganic Chemistry": 1,
    "Textbook": 1,
    "Publisher Information": 1,
    "Aluminosilicates": 1,
    "Zeolite aluminosilicates": 1,
    "Silicon carbide (SiC)": 1,
    "Extended network solids": 1,
    "Molecular sieves": 1,
    "Reduction": 1,
    "Oxidation": 1,
    "Cathode": 1,
    "Anode": 1,
    "Discharge Potential": 1,
    "Overvoltage": 1,
    "carbon dioxide": 1,
    "silicon dioxide": 1,
    "amphoteric": 1,
    "inert-pair effect": 1,
    "tetrahydroxides": 1
  },
  "prerequisites": {
    "Periodic trends": 7,
    "Redox reactions": 3,
    "Oxidation states": 3,
    "Acid-base reactions": 2,
    "Understanding of periodic trends": 3,
    "Basic knowledge of intermolecular forces": 1,
    "Coordination chemistry basics": 6,
    "Electronic configuration of transition metals": 1,
    "Ligand field theory": 1,
    "Understanding of colligative properties": 1,
    "Basic knowledge of ionic dissociation": 1,
    "Atomic Orbitals": 1,
    "Electron Configuration": 2,
    "Bonding in Molecules": 1,
    "Hybridization concepts": 3,
    "Valence bond theory": 1,
    "Molecular geometry principles": 1,
    "Basic acid-base reactions": 1,
    "Redox chemistry": 1,
    "Coordination chemistry": 3,
    "Thermodynamics": 1,
    "Molecular Orbital Theory basics": 1,
    "Coordination chemistry concepts": 1,
    "Electron configuration of transition metals": 1,
    "Thermodynamics of chemical reactions": 1,
    "Transition state theory": 1,
    "Electrochemical kinetics": 1,
    "Chemical bonding": 1,
    "Understanding of basic salt formation": 1,
    "Knowledge of hydrolysis reactions": 1,
    "Familiarity with thermal decomposition reactions": 1,
    "basic understanding of molecular symmetry": 1,
    "knowledge of point group classification": 1,
    "Basic knowledge of atomic structure": 3,
    "basic understanding of atmospheric composition": 1,
    "knowledge of chemical reactions and stoichiometry": 1,
    "coordination chemistry": 1,
    "organometallic chemistry": 1,
    "catalytic mechanisms": 1,
    "Crystal field theory basics": 2,
    "Understanding of ionic bonding": 4,
    "Knowledge of X-ray diffraction techniques": 1,
    "Understanding of oxidation states": 1,
    "Knowledge of acid-base reactions": 1,
    "Basic knowledge of periodic trends": 1,
    "Understanding of thermodynamic concepts": 1,
    "Knowledge of crystal structures": 1,
    "Familiarity with oxidation states": 1,
    "cluster chemistry concepts": 1,
    "isoelectronic series understanding": 1,
    "Coordination complexes": 1,
    "Reaction mechanisms": 2,
    "Transition metals": 1,
    "Valence electrons": 1,
    "ionic charge": 1,
    "Classical mechanics": 1,
    "Wave-particle duality": 1,
    "Electron behavior": 1,
    "Gibbs free energy": 1,
    "electrochemical cells": 1,
    "Basic crystal structure concepts": 1,
    "Knowledge of coordination numbers": 2,
    "basic molecular structure concepts": 1,
    "understanding of molecular vibrations": 1,
    "knowledge of NMR spectroscopy": 1,
    "Oxidation states of main group elements": 1,
    "Preparation of oxides": 1,
    "Hydrolysis reactions": 1,
    "Basic knowledge of element properties": 1,
    "Understanding of chemical reactions and decomposition": 1,
    "Familiarity with gas-phase reactions": 1,
    "Basic knowledge of chemical elements and their properties": 1,
    "Understanding of acid-base reactions": 1,
    "Familiarity with historical context of chemical discoveries": 1,
    "Understanding of crystal lattices": 2,
    "Basic concepts of atomic packing": 1,
    "Balancing redox reactions": 1,
    "Understanding oxidation states": 1,
    "Basic acid-base chemistry": 1,
    "periodic trends": 2,
    "electron configuration": 1,
    "oxidation states": 3,
    "Basic understanding of atomic structure": 1,
    "Concept of isotopes": 1,
    "Logarithmic functions": 1,
    "Knowledge of unit cells": 1,
    "Familiarity with crystal systems": 1,
    "Nucleophilic substitution": 1,
    "Basic understanding of periodic table organization": 1,
    "Knowledge of atomic structure basics": 1,
    "Understanding of coordination compounds": 2,
    "Basic knowledge of chemical reactions": 1,
    "Familiarity with ligand field theory": 1,
    "Understanding of covalent and ionic bonding": 1,
    "Knowledge of oxidation states and electronegativity": 1,
    "Basic knowledge of hydrolysis reactions": 1,
    "Fundamentals of solid-state chemistry": 1,
    "Materials chemistry basics": 1,
    "Structural chemistry principles": 1,
    "Understanding of molecular symmetry operations": 1,
    "Basics of group theory": 1,
    "Basic understanding of textbook structure": 1,
    "Periodic Table Organization": 1,
    "Atomic Structure Basics": 1,
    "Understanding of bonding theories": 1,
    "Knowledge of enthalpy concepts": 2,
    "Crystal Field Theory basics": 4,
    "Electron configuration in transition metals": 1,
    "Magnetic properties of ions": 1,
    "Understanding of periodic table trends": 1,
    "Concept of periodic properties": 1,
    "d-block elements": 1,
    "electronic configuration": 1,
    "Basic knowledge of enzyme mechanisms": 1,
    "Understanding of metal ion properties": 1,
    "Familiarity with biological catalytic processes": 1,
    "kinetics": 1,
    "thermodynamics": 1,
    "free energy change": 1,
    "Basic understanding of elemental discovery history": 1,
    "Knowledge of gas properties": 1,
    "Atomic orbitals": 1,
    "Electron configuration": 5,
    "Basic concepts of chemical bonding": 1,
    "Understanding of ions and their charges": 1,
    "Knowledge of molecular structure": 1,
    "Group theory basics": 1,
    "Molecular orbital theory": 2,
    "Electrochemical Cells": 1,
    "Redox Reactions": 1,
    "Electrode Potentials": 1,
    "Electronic configuration": 1,
    "Orbital filling": 1,
    "electronic structure of p-block elements": 1,
    "ionic bonding concepts": 1,
    "coordination chemistry basics": 1,
    "Crystal Field Theory": 1,
    "Electronic configurations of transition metals": 3,
    "Spin states in coordination complexes": 1,
    "Basic understanding of ionic bonding": 1,
    "Knowledge of periodic trends": 1,
    "Familiarity with basic chemical reactions": 1,
    "Basic understanding of electromagnetic spectrum": 1,
    "Fundamentals of light interaction with matter": 1,
    "Knowledge of spectroscopic instruments": 1,
    "basic understanding of atomic structure": 1,
    "knowledge of periodic table trends": 1,
    "Thermochemistry": 1,
    "Hydrogen chemistry": 1,
    "Understanding of ligand field theory": 1,
    "Knowledge of transition metal chemistry": 1,
    "Understanding of bonding types": 1,
    "Knowledge of oxoanions": 1,
    "Familiarity with periodic trends": 2,
    "Br\u00f8nsted\u2013Lowry definition of acids and bases": 1,
    "Concept of proton transfer": 1,
    "basic stoichiometry": 1,
    "knowledge of alkali metals": 1,
    "understanding of redox reactions": 1,
    "Quantum numbers": 1,
    "Periodic table organization": 1,
    "Electronic structure of transition metals": 2,
    "Spectroscopy basics": 1,
    "Understanding of coordination chemistry": 1,
    "Knowledge of lanthanide elements": 1,
    "Basic knowledge of ligand types and their bonding modes": 1,
    "Electrochemical series": 1,
    "Coordination chemistry fundamentals": 1,
    "Coordination geometry": 1,
    "Basic knowledge of catalytic mechanisms": 1,
    "Understanding of oxidation reactions": 1,
    "Familiarity with transition metals": 1,
    "coordination complexes": 1,
    "redox reactions": 1,
    "Knowledge of electron configurations in transition metals": 1,
    "Familiarity with Wade's rules": 1,
    "Understanding of molecular symmetry": 1,
    "Knowledge of thermodynamic cycles": 1,
    "Isomerism in coordination compounds": 1,
    "Concept of chirality and enantiomers": 1,
    "Magnetic resonance imaging principles": 1,
    "Periodic trends in alkali metals": 1,
    "Oxidation states of metals": 1,
    "Crystal structures of ionic compounds": 1,
    "Quantum Numbers": 1,
    "Angular Momentum Quantities": 1,
    "molecular orbital theory": 1,
    "bond order calculation": 1,
    "Basic understanding of inorganic chemistry principles": 1,
    "Knowledge of chemical bonding and reactivity": 1,
    "Valence shell electron pair repulsion (VSEPR) theory": 1,
    "Electronic configurations of atoms": 1,
    "Bonding theories": 2,
    "Crystal field theory": 1,
    "Band theory of solids": 1,
    "Basic understanding of periodic trends": 1,
    "Lewis acid-base theory": 1,
    "gas-phase reactions": 1,
    "coordination bond concepts": 1,
    "Chemical bonding concepts": 1,
    "Thermochemistry basics": 1,
    "Basic knowledge of nitrogen compounds": 1,
    "basic concepts of coordination chemistry": 1,
    "ligand classification": 1,
    "metal-ligand bonding": 1,
    "Basic understanding of periodic table structure": 1,
    "Lewis Structures": 1,
    "VSEPR Theory": 1,
    "Valence Bond Theory": 1,
    "Electrochemical Concepts": 1,
    "Crystal structures and unit cells": 1,
    "Ionic bonding and lattice structures": 1,
    "Ferroelectricity and piezoelectricity concepts": 1,
    "acid-base chemistry": 2,
    "Basic understanding of chemistry concepts": 1,
    "Periodic trends in Group 14 elements": 1,
    "Basic understanding of ionic and covalent bonding": 1,
    "Knowledge of common oxides and their properties": 1,
    "Basic redox reactions": 1,
    "Electrode potentials": 1,
    "Ion behavior in solutions": 1
  },
  "leads_to": {
    "Environmental chemistry": 2,
    "Coordination chemistry": 8,
    "Oxidation-reduction reactions": 3,
    "Comparative analysis of hydrides": 1,
    "Acid-Base Behavior in Different Solvents": 1,
    "Crystal Field Theory": 7,
    "Ligand Field Theory": 4,
    "Structure determination techniques": 1,
    "Electron configuration analysis": 1,
    "Molecular Orbital Calculations": 1,
    "Electronic Structure of Molecules": 1,
    "Molecular orbital theory": 2,
    "Extraction of metals from ores": 1,
    "Coordination complex formation": 1,
    "pH calculations": 1,
    "Electrochemistry": 4,
    "Organometallic Chemistry": 1,
    "Electrochemical kinetics": 1,
    "Reaction mechanisms in inorganic chemistry": 1,
    "Crystal field theory": 4,
    "Coordination chemistry of transition metals": 1,
    "Thermal stability of inorganic compounds": 1,
    "determination of molecular point groups": 1,
    "application of symmetry in spectroscopy": 1,
    "Chemical Bonding": 2,
    "Reactivity Trends": 1,
    "Climate Change Mechanisms": 1,
    "Air Pollution Chemistry": 1,
    "homologation processes": 1,
    "hydrogenolysis reactions": 1,
    "Crystal field stabilization energy calculations": 1,
    "Coordination complexes and their geometries": 1,
    "Predicting molecular polarity": 1,
    "Understanding ionic vs covalent bonding": 1,
    "Coordination chemistry of Group 14 elements": 1,
    "Reactivity patterns in main group elements": 1,
    "Electrochemical processes": 1,
    "Materials science applications": 1,
    "metallorganic chemistry": 1,
    "cluster synthesis techniques": 1,
    "Homogeneous catalysis": 1,
    "Organometallic chemistry": 1,
    "Molecular geometry": 1,
    "resonance stabilization": 1,
    "Quantum chemical calculations": 1,
    "Atomic structure theory": 1,
    "Electrochemical series": 2,
    "Redox reactions in aqueous solutions": 1,
    "Lattice energy calculations": 1,
    "Coordination Chemistry": 2,
    "Molecular Spectroscopy": 1,
    "Acid-base chemistry": 1,
    "Industrial chemical processes": 3,
    "Purification techniques for metals": 1,
    "Periodic table trends": 1,
    "Chemical warfare history": 1,
    "Coordination compounds": 1,
    "Electrochemical cells": 2,
    "Corrosion processes": 2,
    "Coordination Compounds": 1,
    "Reactivity of Main Group Elements": 1,
    "Radiometric dating techniques": 1,
    "Nuclear reaction kinetics": 1,
    "Crystallography": 1,
    "Solid-state chemistry": 1,
    "Reaction mechanisms in coordination chemistry": 1,
    "Coordination sphere effects": 1,
    "Chemical bonding and reactivity patterns": 1,
    "Periodic trends and properties": 1,
    "Photographic chemistry": 1,
    "Coordination compound synthesis": 1,
    "Coordination chemistry of halides": 1,
    "Electrochemical properties of metal halides": 1,
    "Advanced structural solid-state chemistry": 1,
    "Applications of mesostructured materials": 1,
    "Analysis of molecular vibrations": 1,
    "Determination of molecular orbitals": 1,
    "Textbook content chapters": 1,
    "Publication details": 1,
    "Reactivity Patterns": 1,
    "Electron behavior in metals": 1,
    "Metallic conductivity": 1,
    "Magnetic properties of transition metal complexes": 1,
    "Electronic structure of coordination compounds": 1,
    "Chemical bonding": 2,
    "Reactivity patterns of elements": 1,
    "Electrochemical Series": 1,
    "Enzyme mechanism studies": 1,
    "Metalloenzyme function analysis": 1,
    "reaction mechanisms": 1,
    "coordination complex reactivity": 1,
    "Modern noble gas applications": 1,
    "Gas spectroscopy": 1,
    "Chemical bonding in molecules": 1,
    "Molecular orbital theory applications": 1,
    "Covalent bonding": 1,
    "Metallic bonding": 1,
    "Electroplating": 1,
    "Corrosion Mechanisms": 1,
    "Spectrochemical series": 3,
    "Crystal Field Stabilization Energy (CFSE)": 2,
    "solid-state chemistry": 1,
    "organometallic catalysis": 1,
    "Magnetic properties of coordination complexes": 1,
    "Reactivity of metal centers in enzymes": 1,
    "Infrared spectroscopy": 1,
    "Electronic transitions in molecules": 1,
    "chemical bonding": 1,
    "molecular structure": 1,
    "Thermochemistry applications": 1,
    "Redox chemistry": 1,
    "Group 5A chemistry": 1,
    "Bonding in transition metals": 1,
    "Non-aqueous solvents": 1,
    "Acid-base reactions in different solvents": 1,
    "electrochemical processes": 1,
    "coordination chemistry": 2,
    "Periodic trends": 2,
    "Electron transfer mechanisms": 1,
    "Photochemistry of coordination complexes": 1,
    "Ligand field theory": 2,
    "Electronic structure of lanthanide complexes": 1,
    "Crystal field stabilization energy (CFSE)": 1,
    "Magnetic properties of complexes": 2,
    "Mechanistic studies of catalytic reactions": 1,
    "Comparative analysis of transition metal catalysis": 1,
    "inert vs. reactive ligands": 1,
    "electronic structure of transition metals": 1,
    "Predicting cluster geometries": 1,
    "Designing new inorganic compounds": 1,
    "Solid-state energetics calculations": 1,
    "Advanced stereochemistry of coordination complexes": 1,
    "Chiral ligand design in catalysis": 1,
    "MRI contrast agent design": 1,
    "Paramagnetic complexes in biology": 1,
    "Reactivity of alkali metals": 1,
    "Molecular Orbital Theory": 1,
    "Electronic Spectroscopy": 1,
    "molecular orbital diagrams": 1,
    "reactivity of diatomic molecules": 1,
    "Industrial applications of inorganic chemistry": 1,
    "Transition metal chemistry": 1,
    "Crystal Field Stabilization Energy": 1,
    "Color chemistry in materials science": 1,
    "Electronic structure of solids": 1,
    "Prediction of solubility trends": 1,
    "Calculation of formation enthalpies": 1,
    "Complex ion formation": 1,
    "coordination polymer chemistry": 1,
    "Nitrogen chemistry applications": 1,
    "coordination polymer structures": 1,
    "ligand field theory": 1,
    "Elemental properties": 1,
    "Molecular Orbital Theory in Coordination Chemistry": 1,
    "Periodic trends in alkali metals": 1,
    "Ionic compound formation": 1,
    "Photovoltaic materials and applications": 1,
    "Solid-state materials synthesis": 1,
    "Chapter content understanding": 1,
    "Textbook usage": 1,
    "Applications of inorganic solids in industry": 1,
    "Structure and properties of silicate minerals": 1,
    "silicate structures": 1
  },
  "summary": {
    "n_topics": 45,
    "n_subtopics": 101,
    "n_concepts": 420,
    "n_prereqs": 221,
    "n_leads_to": 163
  }
}